
$G_{VRH}$:
E$_{form}$ per atom (0.11833185768601519, 1.1141102076859366e-23)
Band Gap (-0.01018446839338975, 0.3896106912316434)
E per atom (-0.44458718695654476, 0.0)
Average Radius (-0.24074588950379602, 1.1868726194560001e-94)
Average Mass (-0.09431125439027926, 1.4114914019134191e-15)
Average Column (-0.04682869008639661, 7.561819537892348e-05)
Average Row (-0.16511838979792695, 8.341549370677136e-45)
Average Atomic Number (-0.10400954391335931, 1.253865989647963e-18)
S Valence $e^{-}$ Fraction (0.14254324483496553, 1.0213915148606447e-33)
P Valence $e^{-}$ Fraction (-0.0034618075916220264, 0.7699607002105653)
D Valence $e^{-}$ Fraction (-0.12199164305148061, 4.477986242748673e-25)
F Valence $e^{-}$ Fraction (0.053695354819381605, 5.65155902468369e-06)
Average S Valence $e^{-}s$ (0.03176388218940875, 0.007278360583957725)
Average P Valence $e^{-}s$ (-0.11158216802986352, 3.227294124037868e-21)
Average D Valence $e^{-}s$ (-0.17094847082610531, 6.053780211536245e-48)
Average F Valence $e^{-}s$ (0.05530400974423674, 2.9364978508748866e-06)
Average Electronegativity (0.06646056188775334, 1.906664614266715e-08)
Average Electron Affinity (-0.1357913636322652, 9.990480020991174e-31)

$K_{VRH}$:
E$_{form}$ per atom (0.1675726746973865, 4.108152776902548e-46)
Band Gap (-0.11356765294010479, 6.305854491315876e-22)
E per atom (-0.6323443101054064, 0.0)
Average Radius (-0.17949853313612738, 9.350443714947982e-53)
Average Mass (0.09953138849629051, 3.500057299153078e-17)
Average Column (-0.13996407280889206, 1.47593966749893e-32)
Average Row (-0.009263308656371856, 0.4339172800147255)
Average Atomic Number (0.09560791140317056, 5.739203907040629e-16)
S Valence $e^{-}$ Fraction (-0.12142622878040643, 7.405251984368947e-25)
P Valence $e^{-}$ Fraction (-0.17819266058844097, 5.26856150573258e-52)
D Valence $e^{-}$ Fraction (0.05003500959129238, 2.3452306568490796e-05)
F Valence $e^{-}$ Fraction (0.16507116452869203, 8.835060565153807e-45)
Average S Valence $e^{-}s$ (-0.10327075145907673, 2.1935276784490366e-18)
Average P Valence $e^{-}s$ (-0.1958577144323871, 1.174955894026662e-62)
Average D Valence $e^{-}s$ (0.018226375275865608, 0.12362270907681737)
Average F Valence $e^{-}s$ (0.20563560859248586, 5.130848413593927e-69)
Average Electronegativity (0.11720453833105886, 2.9392698001789366e-23)
Average Electron Affinity (-0.0851559182939689, 5.746166654335387e-13)
